 Gaussian 16, Revision A.03,
 Gaussian 16:  ES64L-G16RevA.03 25-Dec-2016

 ------------------------------
 # opt freq 6-311++g(d,p) m062x
 ------------------------------

 ----------
 [No Title]
 ----------
 Symbolic Z-matrix:
 Charge =  0 Multiplicity = 1

 SCF Done:  E(RM062X) =  -6033.52439445     A.U. after   16 cycles
 SCF Done:  E(RM062X) =  -6033.55618104     A.U. after   15 cycles
 SCF Done:  E(RM062X) =  -6033.56544718     A.U. after   16 cycles
 SCF Done:  E(RM062X) =  -6033.56723937     A.U. after   16 cycles
 SCF Done:  E(RM062X) =  -6033.57179528     A.U. after   15 cycles
 SCF Done:  E(RM062X) =  -6033.57908799     A.U. after   17 cycles
 SCF Done:  E(RM062X) =  -6033.58588170     A.U. after   17 cycles
 SCF Done:  E(RM062X) =  -6033.58802953     A.U. after   16 cycles
 SCF Done:  E(RM062X) =  -6033.58730359     A.U. after   17 cycles
 SCF Done:  E(RM062X) =  -6033.59065468     A.U. after   16 cycles
 SCF Done:  E(RM062X) =  -6033.59810699     A.U. after   13 cycles
 SCF Done:  E(RM062X) =  -6033.59811272     A.U. after   11 cycles
 SCF Done:  E(RM062X) =  -6033.59811413     A.U. after   11 cycles
 SCF Done:  E(RM062X) =  -6033.59811480     A.U. after   10 cycles
 SCF Done:  E(RM062X) =  -6033.59811535     A.U. after   10 cycles
 SCF Done:  E(RM062X) =  -6033.59811552     A.U. after    9 cycles
 SCF Done:  E(RM062X) =  -6033.59811570     A.U. after    9 cycles
 SCF Done:  E(RM062X) =  -6033.59811591     A.U. after   10 cycles
 SCF Done:  E(RM062X) =  -6033.59811597     A.U. after    9 cycles
 Optimization completed.
    -- Stationary point found.
 Normal termination of Gaussian 16 at Mon Oct 16 17:37:21 2017.

 ----------------------------------------------------------------------
 #N Geom=AllCheck Guess=TCheck SCRF=Check GenChk RM062X/6-311++G(d,p) F
 req
 ----------------------------------------------------------------------

 Structure from the checkpoint file:  "20171016_84008-04-8_gas_iso2.chk"
 ----------
 [No Title]
 ----------
 Charge =  0 Multiplicity = 1

                         Standard orientation:
 ---------------------------------------------------------------------
 Center     Atomic      Atomic             Coordinates (Angstroms)
 Number     Number       Type             X           Y           Z
 ---------------------------------------------------------------------
      1          8           0        0.116636    2.111201   -0.334485
      2          5           0        0.154671    0.721566   -0.245979
      3          6           0        1.830890   -1.167973    0.339618
      4          6           0        3.120109   -1.676313    0.442975
      5          6           0        4.187134   -0.874334    0.058023
      6          6           0        3.993329    0.420234   -0.411041
      7          6           0        2.697994    0.912211   -0.495301
      8          6           0        1.591110    0.128586   -0.135394
      9          6           0       -2.268052    0.339795    0.525894
     10          6           0       -1.149795   -0.129398   -0.176679
     11          6           0       -1.238741   -1.381834   -0.795285
     12          6           0       -2.401138   -2.142564   -0.731129
     13          6           0       -3.481231   -1.651053   -0.011350
     14          6           0       -3.427726   -0.416646    0.625597
     15          6           0       -0.853585    2.859776   -0.903055
     16         35           0        5.953045   -1.559467    0.185836
     17          6           0       -0.859069    4.302217   -0.411651
     18          8           0       -1.628158    2.445498   -1.713470
     19          6           0       -2.078938    4.464122    0.501111
     20         35           0       -5.069874   -2.686482    0.102824
     21          8           0       -1.877388    3.610975    1.618221
     22          1           0        0.998953   -1.788866    0.653493
     23          1           0        3.297912   -2.675814    0.818031
     24          1           0        4.841955    1.027731   -0.697926
     25          1           0        2.536882    1.926804   -0.843724
     26          1           0       -2.229158    1.312148    1.008230
     27          1           0       -0.394935   -1.766751   -1.358439
     28          1           0       -2.467942   -3.101611   -1.228113
     29          1           0       -4.284240   -0.055081    1.179854
     30          1           0       -2.147862    5.511965    0.814469
     31          1           0       -2.986634    4.189531   -0.047249
     32          1           0       -2.540319    3.794573    2.287318
     33          1           0       -1.033100    4.912214   -1.301675
     34          7           0        0.412272    4.672039    0.181165
     35          1           0        0.390113    5.642941    0.473853
     36          1           0        0.585668    4.103981    1.004410
 ---------------------------------------------------------------------

 SCF Done:  E(RM062X) =  -6033.59811597     A.U. after    1 cycles

 The electronic state is 1-A.
 Alpha  occ. eigenvalues -- -485.33993-485.33699 -63.33183 -63.32889 -57.15930
 Alpha  occ. eigenvalues --  -57.15676 -57.15666 -57.15635 -57.15381 -57.15373
 Alpha  occ. eigenvalues --  -19.67138 -19.65309 -19.62964 -14.74238 -10.69133
 Alpha  occ. eigenvalues --  -10.61547 -10.61139 -10.61060 -10.59816 -10.56394
 Alpha  occ. eigenvalues --  -10.56289 -10.56254 -10.56130 -10.56097 -10.55993
 Alpha  occ. eigenvalues --  -10.55984 -10.55762 -10.54092 -10.54029  -9.01902
 Alpha  occ. eigenvalues --   -9.01607  -7.08870  -6.84698  -6.84400  -6.83672
 Alpha  occ. eigenvalues --   -6.83650  -6.83375  -6.83359  -2.87855  -2.87557
 Alpha  occ. eigenvalues --   -2.87499  -2.87474  -2.87201  -2.87181  -2.86566
 Alpha  occ. eigenvalues --   -2.86566  -2.86273  -2.86273  -1.24345  -1.17788
 Alpha  occ. eigenvalues --   -1.15646  -1.01574  -0.98984  -0.98607  -0.90989
 Alpha  occ. eigenvalues --   -0.90351  -0.86461  -0.86085  -0.85885  -0.83014
 Alpha  occ. eigenvalues --   -0.81708  -0.77613  -0.71705  -0.70961  -0.70565
 Alpha  occ. eigenvalues --   -0.68354  -0.68058  -0.64190  -0.61320  -0.60490
 Alpha  occ. eigenvalues --   -0.59512  -0.58342  -0.55931  -0.55748  -0.54376
 Alpha  occ. eigenvalues --   -0.54157  -0.53804  -0.53274  -0.52955  -0.51933
 Alpha  occ. eigenvalues --   -0.50821  -0.50367  -0.49307  -0.48170  -0.47055
 Alpha  occ. eigenvalues --   -0.46609  -0.46120  -0.45458  -0.43919  -0.42510
 Alpha  occ. eigenvalues --   -0.42382  -0.41887  -0.41171  -0.38531  -0.38394
 Alpha  occ. eigenvalues --   -0.38121  -0.37723  -0.36431  -0.35420  -0.35159
 Alpha  occ. eigenvalues --   -0.32682  -0.32520  -0.32186  -0.30831  -0.29706
 Alpha virt. eigenvalues --   -0.04616  -0.02066  -0.00377  -0.00224  -0.00198
 Alpha virt. eigenvalues --    0.00360   0.00516   0.00822   0.01285   0.01523
 Alpha virt. eigenvalues --    0.01740   0.01862   0.02097   0.02690   0.03158

 Mulliken charges:
               1
     1  O   -0.084713
     2  B    0.327542
     3  C   -0.366804
     4  C   -0.544637
     5  C    0.203460
     6  C   -0.279166
     7  C    0.152830
     8  C    0.005427
     9  C    0.148687
    10  C    0.060559
    11  C   -0.345217
    12  C   -0.512041
    13  C    0.292858
    14  C   -0.257163
    15  C   -0.567500
    16  Br  -0.203375
    17  C   -0.163597
    18  O   -0.078715
    19  C   -0.423679
    20  Br  -0.211652
    21  O   -0.266083
    22  H    0.204273
    23  H    0.269349
    24  H    0.269277
    25  H    0.258371
    26  H    0.233209
    27  H    0.214432
    28  H    0.269343
    29  H    0.262888
    30  H    0.192831
    31  H    0.212678
    32  H    0.291088
    33  H    0.267913
    34  N   -0.375514
    35  H    0.261175
    36  H    0.281668
 Sum of Mulliken charges =   0.00000

 Dipole moment (field-independent basis, Debye):
    X=             -1.2121    Y=              3.8697    Z=              2.3811  Tot=              4.7025
 Quadrupole moment (field-independent basis, Debye-Ang):
   XX=           -163.9648   YY=           -127.4122   ZZ=           -155.6871
   XY=            -12.0996   XZ=             -9.2088   YZ=             10.1625

  Exact polarizability: 342.552   5.900 250.906  -6.517  -0.470 158.677
 Approx polarizability: 365.827   8.429 305.795  -9.695   0.445 223.595

                      1                      2                      3
                      A                      A                      A
 Frequencies --     21.3168                25.5408                32.0142
 Red. masses --      5.6394                15.1275                 5.6993
 Frc consts  --      0.0015                 0.0058                 0.0034
 IR Inten    --      1.6435                 0.0585                 0.4386

                      4                      5                      6
                      A                      A                      A
 Frequencies --     39.6606                47.0184                58.7951
 Red. masses --      5.2419                 4.7038                 7.0104
 Frc consts  --      0.0049                 0.0061                 0.0143
 IR Inten    --      0.4667                 0.9450                 2.2617

                      7                      8                      9
                      A                      A                      A
 Frequencies --     86.4666                99.5104               113.7034
 Red. masses --      6.6740                 5.4548                 7.5159
 Frc consts  --      0.0294                 0.0318                 0.0573
 IR Inten    --      0.5455                 0.6735                 1.5847

                     10                     11                     12
                      A                      A                      A
 Frequencies --    134.4808               144.8946               156.9324
 Red. masses --      7.1071                 7.8330                13.6123
 Frc consts  --      0.0757                 0.0969                 0.1975
 IR Inten    --      3.1911                 0.4587                 0.6516

                     13                     14                     15
                      A                      A                      A
 Frequencies --    183.5804               194.3994               224.7078
 Red. masses --      4.8455                 6.1489                 6.6978
 Frc consts  --      0.0962                 0.1369                 0.1993
 IR Inten    --      3.2882                 2.4612                 1.9138

                     16                     17                     18
                      A                      A                      A
 Frequencies --    245.7323               249.6036               264.2242
 Red. masses --      3.1880                 1.3802                 1.8522
 Frc consts  --      0.1134                 0.0507                 0.0762
 IR Inten    --     26.3254               135.0781                12.0939

                     19                     20                     21
                      A                      A                      A
 Frequencies --    277.0209               293.5023               294.9557
 Red. masses --      2.6533                 4.1644                 3.8624
 Frc consts  --      0.1200                 0.2114                 0.1980
 IR Inten    --     21.6863                11.0830                 9.7385

                     22                     23                     24
                      A                      A                      A
 Frequencies --    330.0100               378.1800               403.4131
 Red. masses --      2.9500                 6.8319                 6.3954
 Frc consts  --      0.1893                 0.5757                 0.6132
 IR Inten    --      4.8210                14.4963                 6.7716

                     25                     26                     27
                      A                      A                      A
 Frequencies --    410.0166               420.3788               450.6373
 Red. masses --      2.9101                 3.0364                 4.7102
 Frc consts  --      0.2882                 0.3161                 0.5636
 IR Inten    --      0.6241                 0.3436                 5.0827

                     28                     29                     30
                      A                      A                      A
 Frequencies --    474.9097               495.1161               525.9063
 Red. masses --      3.9136                 4.3645                 4.7428
 Frc consts  --      0.5201                 0.6304                 0.7729
 IR Inten    --     11.1322                 2.5422                19.3868

                     31                     32                     33
                      A                      A                      A
 Frequencies --    581.9407               632.5843               638.1526
 Red. masses --      4.0335                 5.8518                 6.8017
 Frc consts  --      0.8048                 1.3797                 1.6320
 IR Inten    --      8.9143                19.0934                 0.9088

                     34                     35                     36
                      A                      A                      A
 Frequencies --    649.0356               666.6239               689.2326
 Red. masses --      5.5273                 6.2752                 5.8413
 Frc consts  --      1.3718                 1.6430                 1.6349
 IR Inten    --     17.8249                13.5945                 4.5814

                     37                     38                     39
                      A                      A                      A
 Frequencies --    732.2663               744.0308               757.8041
 Red. masses --      4.5783                 4.8183                 5.6409
 Frc consts  --      1.4464                 1.5715                 1.9086
 IR Inten    --      2.0779                 8.0229                 7.4185

                     40                     41                     42
                      A                      A                      A
 Frequencies --    802.6357               843.6920               848.1308
 Red. masses --      4.1111                 2.3853                 1.4480
 Frc consts  --      1.5604                 1.0004                 0.6137
 IR Inten    --     40.9404                35.6370                36.9963

                     43                     44                     45
                      A                      A                      A
 Frequencies --    852.9331               867.0246               872.0392
 Red. masses --      1.5976                 1.2527                 1.2505
 Frc consts  --      0.6848                 0.5548                 0.5603
 IR Inten    --     53.6089                 1.5019                 1.0920

                     46                     47                     48
                      A                      A                      A
 Frequencies --    886.2191               934.4855               946.4934
 Red. masses --      2.6354                 3.4608                 2.5612
 Frc consts  --      1.2195                 1.7806                 1.3518
 IR Inten    --    119.5641                46.9728               129.3313

                     49                     50                     51
                      A                      A                      A
 Frequencies --    994.2400              1001.0275              1017.8652
 Red. masses --      1.3244                 1.2843                 1.3865
 Frc consts  --      0.7714                 0.7582                 0.8464
 IR Inten    --      0.6425                 0.4702                 6.0502

                     52                     53                     54
                      A                      A                      A
 Frequencies --   1022.3026              1026.1118              1027.9874
 Red. masses --      1.7399                 2.3313                 2.1414
 Frc consts  --      1.0714                 1.4462                 1.3333
 IR Inten    --     19.6949                10.6875                22.4223

                     55                     56                     57
                      A                      A                      A
 Frequencies --   1032.2136              1100.2021              1106.7163
 Red. masses --      4.1547                 3.6031                 2.5733
 Frc consts  --      2.6081                 2.5696                 1.8570
 IR Inten    --     46.0163                30.8373                81.3408

                     58                     59                     60
                      A                      A                      A
 Frequencies --   1111.1218              1131.1198              1136.4460
 Red. masses --      2.1220                 3.7708                 1.3879
 Frc consts  --      1.5436                 2.8425                 1.0561
 IR Inten    --     11.9291                23.8916                 1.4267

                     61                     62                     63
                      A                      A                      A
 Frequencies --   1139.3180              1152.2730              1185.7083
 Red. masses --      1.3947                 2.2780                 1.1781
 Frc consts  --      1.0666                 1.7820                 0.9758
 IR Inten    --     19.3333               122.5903                19.7976

                     64                     65                     66
                      A                      A                      A
 Frequencies --   1213.8262              1219.7556              1229.4276
 Red. masses --      1.1317                 1.1806                 1.6052
 Frc consts  --      0.9824                 1.0349                 1.4295
 IR Inten    --     31.2831                 8.9554                21.2545

                     67                     68                     69
                      A                      A                      A
 Frequencies --   1267.9459              1280.7780              1292.2203
 Red. masses --      5.3900                 2.3053                 3.4723
 Frc consts  --      5.1055                 2.2281                 3.4161
 IR Inten    --    305.7062               571.0117                49.7237

                     70                     71                     72
                      A                      A                      A
 Frequencies --   1299.7635              1310.3607              1319.4745
 Red. masses --      2.1354                 4.7456                 4.2151
 Frc consts  --      2.1255                 4.8009                 4.3238
 IR Inten    --    328.7166                45.3838               238.6148

                     73                     74                     75
                      A                      A                      A
 Frequencies --   1329.5550              1336.5136              1347.0064
 Red. masses --      1.3202                 1.2872                 1.5305
 Frc consts  --      1.3750                 1.3547                 1.6361
 IR Inten    --     25.1041                 7.1782                63.8008

                     76                     77                     78
                      A                      A                      A
 Frequencies --   1424.8704              1428.4801              1430.2919
 Red. masses --      2.6787                 1.6296                 2.4288
 Frc consts  --      3.2042                 1.9592                 2.9275
 IR Inten    --     37.6118                43.6523                24.6011

                     79                     80                     81
                      A                      A                      A
 Frequencies --   1441.3096              1520.2050              1527.4793
 Red. masses --      1.5466                 1.0870                 2.3430
 Frc consts  --      1.8929                 1.4801                 3.2208
 IR Inten    --     25.6526                 7.1372                 6.9670

                     82                     83                     84
                      A                      A                      A
 Frequencies --   1534.0743              1623.5164              1627.1895
 Red. masses --      2.4715                 6.9799                 6.9861
 Frc consts  --      3.4269                10.8395                10.8983
 IR Inten    --      8.4734                 9.5495                 9.3100

                     85                     86                     87
                      A                      A                      A
 Frequencies --   1654.3073              1656.5788              1658.8465
 Red. masses --      3.0376                 1.3502                 5.4318
 Frc consts  --      4.8980                 2.1830                 8.8066
 IR Inten    --    107.6925                90.0395               178.4084

                     88                     89                     90
                      A                      A                      A
 Frequencies --   1874.2850              3038.6118              3089.8409
 Red. masses --     12.5106                 1.0566                 1.1092
 Frc consts  --     25.8941                 5.7477                 6.2394
 IR Inten    --    280.8736                45.9858                25.7781

                     91                     92                     93
                      A                      A                      A
 Frequencies --   3103.2583              3192.4442              3196.5765
 Red. masses --      1.0853                 1.0909                 1.0900
 Frc consts  --      6.1577                 6.5506                 6.5620
 IR Inten    --      8.8653                 4.8747                 6.2530

                     94                     95                     96
                      A                      A                      A
 Frequencies --   3204.4919              3205.4848              3228.8018
 Red. masses --      1.0903                 1.0893                 1.0942
 Frc consts  --      6.5963                 6.5945                 6.7211
 IR Inten    --      0.4801                 2.4199                 0.5232

                     97                     98                     99
                      A                      A                      A
 Frequencies --   3231.5479              3232.7257              3233.4178
 Red. masses --      1.0946                 1.0946                 1.0949
 Frc consts  --      6.7348                 6.7394                 6.7447
 IR Inten    --      0.3734                 0.3044                 0.4432

                    100                    101                    102
                      A                      A                      A
 Frequencies --   3539.9447              3625.5832              3916.8964
 Red. masses --      1.0495                 1.0939                 1.0671
 Frc consts  --      7.7484                 8.4722                 9.6457
 IR Inten    --      4.8410                10.8527                71.3453

 - Thermochemistry -
 -------------------
 Temperature   298.150 Kelvin.  Pressure   1.00000 Atm.
 Atom     1 has atomic number  8 and mass  15.99491

 Molecular mass:   424.94335 amu.
 Principal axes and moments of inertia in atomic units:
                           1         2         3
     Eigenvalues --  8958.04530********************
           X            0.99983  -0.01807  -0.00280
           Y            0.01810   0.99979   0.00935
           Z            0.00263  -0.00940   0.99995
 This molecule is an asymmetric top.
 Rotational symmetry number  1.
 Warning -- assumption of classical behavior for rotation
           may cause significant error
 Rotational temperatures (Kelvin)      0.00967     0.00380     0.00283
 Rotational constants (GHZ):           0.20147     0.07925     0.05898
 Zero-point vibrational energy     712342.1 (Joules/Mol)
                                  170.25384 (Kcal/Mol)
 Warning -- explicit consideration of  31 degrees of freedom as
           vibrations may cause significant error
 Vibrational temperatures:     30.67    36.75    46.06    57.06    67.65
          (Kelvin)             84.59   124.41   143.17   163.59   193.49
                              208.47   225.79   264.13   279.70   323.30
                              353.55   359.12   380.16   398.57   422.28
                              424.38   474.81   544.12   580.42   589.92
                              604.83   648.37   683.29   712.36   756.66
                              837.28   910.15   918.16   933.82   959.12
                              991.65  1053.57  1070.49  1090.31  1154.81
                             1213.88  1220.27  1227.18  1247.45  1254.67
                             1275.07  1344.52  1361.79  1430.49  1440.26
                             1464.48  1470.87  1476.35  1479.04  1485.13
                             1582.95  1592.32  1598.66  1627.43  1635.09
                             1639.22  1657.86  1705.97  1746.43  1754.96
                             1768.87  1824.29  1842.75  1859.22  1870.07
                             1885.32  1898.43  1912.93  1922.95  1938.04
                             2050.07  2055.26  2057.87  2073.72  2187.24
                             2197.70  2207.19  2335.88  2341.16  2380.18
                             2383.45  2386.71  2696.68  4371.88  4445.59
                             4464.90  4593.22  4599.16  4610.55  4611.98
                             4645.53  4649.48  4651.17  4652.17  5093.19
                             5216.41  5635.54

 Zero-point correction=                           0.271317 (Hartree/Particle)
 Thermal correction to Energy=                    0.292741
 Thermal correction to Enthalpy=                  0.293685
 Thermal correction to Gibbs Free Energy=         0.216403
 Sum of electronic and zero-point Energies=          -6033.326799
 Sum of electronic and thermal Energies=             -6033.305375
 Sum of electronic and thermal Enthalpies=           -6033.304431
 Sum of electronic and thermal Free Energies=        -6033.381713

                     E (Thermal)             CV                S
                      KCal/Mol        Cal/Mol-Kelvin    Cal/Mol-Kelvin
 Total                  183.698             77.885            162.654
 Electronic               0.000              0.000              0.000
 Translational            0.889              2.981             44.031
 Rotational               0.889              2.981             37.077
 Vibrational            181.920             71.924             81.547
 Vibration     1          0.593              1.985              6.508
 Vibration     2          0.593              1.985              6.149
 Vibration     3          0.594              1.983              5.701
 Vibration     4          0.594              1.981              5.276
 Vibration     5          0.595              1.979              4.939
 Vibration     6          0.596              1.974              4.497
 Vibration     7          0.601              1.959              3.738
 Vibration     8          0.604              1.949              3.464
 Vibration     9          0.607              1.938              3.205
 Vibration    10          0.613              1.919              2.881
 Vibration    11          0.616              1.908              2.738
 Vibration    12          0.621              1.895              2.586
 Vibration    13          0.631              1.862              2.292
 Vibration    14          0.635              1.848              2.185
 Vibration    15          0.649              1.803              1.921
 Vibration    16          0.660              1.770              1.761
 Vibration    17          0.662              1.763              1.733
 Vibration    18          0.671              1.739              1.634
 Vibration    19          0.678              1.716              1.552
 Vibration    20          0.688              1.686              1.454
 Vibration    21          0.689              1.683              1.445
 Vibration    22          0.713              1.616              1.260
 Vibration    23          0.748              1.517              1.046
 Vibration    24          0.769              1.463              0.950
 Vibration    25          0.774              1.448              0.927
 Vibration    26          0.783              1.426              0.891
 Vibration    27          0.809              1.359              0.794
 Vibration    28          0.832              1.306              0.724
 Vibration    29          0.851              1.261              0.670
 Vibration    30          0.881              1.193              0.596
 Vibration    31          0.939              1.070              0.482

                           ! Non-Optimized Parameters !
 Normal termination of Gaussian 16 at Mon Oct 16 18:37:16 2017.
